LAMMPS data file via write_data, version 29 Aug 2024, timestep = 0, units = real

307 atoms
2 atom types
204 bonds
1 bond types
102 angles
1 angle types

-10 10 xlo xhi
-10 10 ylo yhi
-10 10 zlo zhi

Atom Type Labels

1 O
2 H

Masses

1 15.9994
2 1.008

PairIJ Coeffs # lj/cut/coul/long

1 1 0.155425 3.16549 12
1 2 0 1 12
2 2 0 1 12

Bond Coeffs # harmonic

1 529.581 1.012

Angle Coeffs # harmonic

1 37.95 113.24

Atoms # full

7 1 2 0.41 -0.1696753963012541 -0.80707164144114 -1.5553377417329286 0 0 0
17 1 1 -0.82 -1.2655045721152258 -1.3870966953859034 -3.0621033874772317 0 0 0
18 1 2 0.41 -0.4247630969366105 -1.9002118770333352 -2.968287822581805 0 0 0
19 1 2 0.41 -1.0411131497179276 -0.8311422086584342 -3.849185271758487 0 0 0
23 3 1 -0.82 -8.257382629156487 -3.7201491600366605 -7.478935854319125 0 0 0
24 3 2 0.41 -8.658518904708698 -3.772152026198469 -8.381886651508017 0 0 0
25 3 2 0.41 -9.07750259192651 -3.650840994814503 -6.929814395353413 0 0 0
44 10 1 -0.82 -4.658032551068234 -0.5903280791052109 -9.532604757797897 0 0 0
59 15 1 -0.82 -5.870818516701181 -3.785956796634862 -4.023588159816749 0 0 0
60 15 2 0.41 -6.076593267685347 -3.4859326460937616 -4.943684357367036 0 0 0
61 15 2 0.41 -5.081899102840918 -4.356192188944916 -4.200711019968617 0 0 0
89 25 1 -0.82 -9.719057956388705 -5.92500567896687 -2.5509576302658594 0 0 0
90 25 2 0.41 -9.407607137538587 -5.233764400879912 -1.9152543703219613 0 0 0
122 36 1 -0.82 -6.907908910818521 -7.334187505493493 -4.896680327862729 0 0 0
123 36 2 0.41 -5.939448685104824 -7.502562784551946 -4.784122305449557 0 0 0
124 36 2 0.41 -7.263493441444298 -8.236634747936177 -4.701530723752854 0 0 0
167 51 1 -0.82 -7.262712859270239 -0.4864339345245957 -0.9027370453330029 0 0 0
169 51 2 0.41 -7.390509766302204 -1.232316949576457 -1.5401232941705565 0 0 0
188 58 1 -0.82 -5.006927635554989 -7.546451025950697 -2.946524284616272 0 0 0
189 58 2 0.41 -4.342324002230427 -7.260333452853024 -2.27171060904835 0 0 0
190 58 2 0.41 -5.663707559849863 -7.998450177309123 -2.3606303948960576 0 0 0
203 63 1 -0.82 -9.294924134199025 -2.4289811310411062 -4.056929972450648 0 0 0
204 63 2 0.41 -9.498787229241708 -1.7240228059913327 -4.720562664698127 0 0 0
206 64 1 -0.82 -8.194592112211675 -1.6609785183470518 -8.315566010226608 0 0 0
207 64 2 0.41 -7.361377010049926 -1.3710641388255884 -7.867640795627928 0 0 0
208 64 2 0.41 -7.998764642842595 -1.3783474490482723 -9.243308449001793 0 0 0
269 85 1 -0.82 -2.830869073250033 -9.018043807618504 -5.071096839264743 0 0 0
270 85 2 0.41 -3.358396857368636 -8.609069397913567 -5.801431776801224 0 0 0
271 85 2 0.41 -2.797816032478579 -8.259440569934235 -4.436775646123835 0 0 0
272 86 1 -0.82 -0.09155293165659158 -7.869031473233826 -1.0523867309212072 0 0 0
273 86 2 0.41 -0.8056895130651853 -7.715407022816338 -0.38504632069193573 0 0 0
2 1 2 1 0.04989316282272278 -0.038962262144782954 -0.049550582629031344 0 0 0
3 1 1 -0.82 0.3782391916057317 -0.5170591144687584 -0.801954918860777 0 0 0
6 1 2 0.41 1.3085974087432177 -0.7839136706895614 -0.9249409866487852 0 0 0
14 1 1 -0.82 3.1693138430181897 -1.3176227831311678 -1.170913122224802 0 0 0
15 1 2 0.41 2.7039857511512926 -1.6159315216765195 -0.3502936452479669 0 0 0
16 1 2 0.41 2.423126828695891 -1.3648518836335555 -1.8189170479274845 0 0 0
29 5 1 -0.82 5.539945446160426 -2.105044977415039 -1.0702334621971967 0 0 0
30 5 2 0.41 6.4883754167283545 -2.0572936276461586 -1.3479656197172947 0 0 0
31 5 2 0.41 5.649636817037621 -2.4029348719665893 -0.13312932408012068 0 0 0
91 25 2 0.41 9.316653502253455 -5.706051182282251 -2.5847406020794272 -1 0 0
95 27 1 -0.82 0.5377837100835351 -9.395481378922005 -7.008865717713864 0 0 0
96 27 2 0.41 0.530675329488711 -8.466840227058627 -7.350201086212614 0 0 0
97 27 2 0.41 0.0758428383176733 -9.856016698087487 -7.752809668956391 0 0 0
131 39 1 -0.82 5.354835220443268 -3.2444297135653293 -6.651474771202577 0 0 0
132 39 2 0.41 4.903211913103452 -2.427382202534666 -6.979201036221181 0 0 0
133 39 2 0.41 5.284911955631391 -3.814776267451373 -7.45692514044041 0 0 0
148 44 2 0.41 2.2757441877168674 -0.47824135847903804 -7.406562458742901 0 0 0
191 59 1 -0.82 2.778208903828947 -1.9593157836252686 -5.571902974151896 0 0 0
192 59 2 0.41 3.5693431174315084 -1.3857780618263573 -5.727131481643822 0 0 0
193 59 2 0.41 2.8482646442528963 -2.5642088715808877 -6.351730709728265 0 0 0
194 60 1 -0.82 0.23224951535039942 -5.619928827126215 -9.74450839256563 0 0 1
196 60 2 0.41 0.8880568806874934 -6.352717089592402 -9.853470834528014 0 0 1
197 61 1 -0.82 4.965629226395727 -8.090385096945523 -8.841629725526538 0 0 0
198 61 2 0.41 5.473448819718512 -7.257420362057377 -9.006625976596675 0 0 0
199 61 2 0.41 5.167280557276796 -8.583147347922013 -9.675570284897216 0 0 0
205 63 2 0.41 9.901790385753305 -2.362868055542506 -3.48308656995333 -1 0 0
227 71 1 -0.82 5.775480079628244 -0.2767489368262022 -4.744058205701839 0 0 0
229 71 2 0.41 4.793522358232588 -0.201883668604882 -4.648722080321159 0 0 0
233 73 1 -0.82 3.080171529982151 -7.40503157177568 -5.4617455905184125 0 0 0
234 73 2 0.41 3.3340845822846967 -6.522734537809212 -5.830547512315707 0 0 0
235 73 2 0.41 3.119754644276997 -7.95344865805427 -6.284306608520982 0 0 0
260 82 1 -0.82 1.4475706044498289 -3.540888951323493 -0.5990038015023713 0 0 0
261 82 2 0.41 1.4461363967718281 -3.2294847198107792 -1.5381311088687966 0 0 0
262 82 2 0.41 0.6148997909771157 -4.075269844026802 -0.5934244017761813 0 0 0
274 86 2 0.41 0.7066500224829511 -7.7024020719143556 -0.49199272808407607 0 0 0
287 91 1 -0.82 8.63795358470467 -8.791658365190184 -9.573868489937489 0 0 0
288 91 2 0.41 8.436527158835979 -7.857047055872239 -9.828552308139118 0 0 0
293 93 1 -0.82 0.9984667722452625 -2.708140610705466 -7.28330664620964 0 0 0
294 93 2 0.41 0.804706575778849 -2.037687657255568 -7.984651479563823 0 0 0
295 93 2 0.41 0.8523697467820495 -3.541377324901857 -7.7964411208486 0 0 0
296 94 1 -0.82 8.535868809166228 -4.418901323682344 -5.577540419140179 0 0 0
297 94 2 0.41 8.622221198634971 -3.72701357879174 -6.279515749974699 0 0 0
298 94 2 0.41 9.301531246767548 -4.99965956065942 -5.81294571565384 0 0 0
41 9 1 -0.82 -1.2430812847433397 9.62393851146691 -5.984557058838126 0 0 0
42 9 2 0.41 -1.5827917171186157 8.774786266526991 -5.607102374344878 0 0 0
43 9 2 0.41 -1.6705869285730837 9.599224400335745 -6.876500380468886 0 0 0
53 13 1 -0.82 -4.61897016213075 5.093324328576309 -4.065637351582404 0 0 0
54 13 2 0.41 -4.59875672591881 5.830619741421037 -4.725123244526012 0 0 0
55 13 2 0.41 -4.582758666940094 4.31533321889742 -4.675844949596119 0 0 0
56 14 1 -0.82 -4.836250180103962 8.446996207601144 -3.952544609925563 0 0 0
57 14 2 0.41 -4.1566087445589925 8.95474051421279 -4.461679159912923 0 0 0
58 14 2 0.41 -4.246547731456741 7.890593874452535 -3.3854447796282363 0 0 0
128 38 1 -0.82 -1.8833523393536773 6.109715605794532 -1.1834063110769961 0 0 0
129 38 2 0.41 -2.030443494450612 5.142653743380619 -1.0347782580258238 0 0 0
130 38 2 0.41 -2.1397703054120454 6.46152884192013 -0.29491769248566957 0 0 0
153 46 2 0.41 -9.790939327194234 2.682351381148865 -7.116516613837418 1 0 0
158 48 1 -0.82 -1.8299685479510028 1.8788739524171068 -1.0657085928457362 0 0 0
159 48 2 0.41 -2.7487778822421425 2.037074959063333 -1.3969133641166132 0 0 0
160 48 2 0.41 -1.4397760056147182 2.7774724657115417 -1.204291577397152 0 0 0
161 49 1 -0.82 -6.8240075190363845 2.8674005068651933 -9.16980554829509 0 0 0
162 49 2 0.41 -6.0351643527441 3.356392758081698 -9.51265797870966 0 0 0
163 49 2 0.41 -7.242583263959554 3.5776403522097735 -8.622732920900958 0 0 0
168 51 2 0.41 -7.155633993860525 0.26554807421721527 -1.5367653782237336 0 0 0
170 52 1 -0.82 -7.707457906650617 9.413319240770033 -7.040841854952631 0 0 0
171 52 2 0.41 -6.906285382842696 9.365377193597459 -7.619425383066895 0 0 0
172 52 2 0.41 -7.275452251374989 9.511848192070813 -6.156196213261878 0 0 0
182 56 1 -0.82 -1.6132581052849737 8.988232823170554 -1.7785382311688358 0 0 0
183 56 2 0.41 -1.6182976076587654 9.734805843966805 -2.4277978709370753 0 0 0
184 56 2 0.41 -1.6076813934797307 8.218913673606124 -2.400673022187552 0 0 0
224 70 1 -0.82 -8.762523215978597 4.857713520307578 -6.6559108643134826 0 0 0
225 70 2 0.41 -8.741844527901423 4.340849728337406 -5.812489875597513 0 0 0
226 70 2 0.41 -9.529924308170235 5.454917942683502 -6.473216602239598 0 0 0
236 74 1 -0.82 -9.908478050519358 7.051079071257369 -8.375079158196419 0 0 0
238 74 2 0.41 -9.265698835574842 6.305222116754193 -8.277780463181756 0 0 0
248 78 1 -0.82 -0.9761742798643299 6.325001616826102 -6.340194457382011 0 0 0
249 78 2 0.41 -0.47475319016136763 5.927978217941106 -7.095101116072938 0 0 0
250 78 2 0.41 -1.893003311487722 6.302375269177854 -6.7114724219336575 0 0 0
257 81 1 -0.82 -3.905797482943762 5.247501668671008 -7.849222709798599 0 0 0
258 81 2 0.41 -3.751646721168886 5.239712548711263 -6.8719245853496265 0 0 0
259 81 2 0.41 -3.7083683198138737 4.301696149579887 -8.062315171888667 0 0 0
299 95 1 -0.82 -7.310582173352374 2.951992702174168 -2.9288733148605917 0 0 0
300 95 2 0.41 -8.05501103916208 2.9049521267584044 -3.578909929068461 0 0 0
301 95 2 0.41 -7.527961361780287 2.1713249993777906 -2.3612123438170913 0 0 0
20 2 1 -0.82 1.245860911998915 2.7269210246745046 -9.722341465347434 0 0 0
21 2 2 0.41 0.6917138857675751 3.417847223641191 -9.281346212881594 0 0 0
35 7 1 -0.82 5.7231345294312055 5.742689615305264 -1.2707629448958067 0 0 0
36 7 2 0.41 5.612686999951881 6.5514651410027 -1.8298856899721905 0 0 0
37 7 2 0.41 5.704538969343452 5.0447473405795735 -1.971808976260903 0 0 0
38 8 1 -0.82 2.47136516076931 4.313757324093047 -3.924386346825766 0 0 0
39 8 2 0.41 2.4155540936821294 5.20487761037011 -4.350677927757266 0 0 0
40 8 2 0.41 2.318010502110286 3.7357835984850483 -4.712652464942854 0 0 0
47 11 1 -0.82 2.5924947590705885 8.691694576684107 -9.233997705054653 0 0 0
48 11 2 0.41 1.7131347704998916 8.239612695529912 -9.269812995504804 0 0 0
49 11 2 0.41 2.3074801114921306 9.602430067113906 -8.972727215074782 0 0 0
50 12 1 -0.82 7.268270704378082 3.5304420717959744 -4.440057302324103 0 0 0
51 12 2 0.41 7.30145882824634 4.303935711843488 -5.056126201910142 0 0 0
52 12 2 0.41 7.257522402672862 2.788898757660318 -5.094986870345094 0 0 0
62 16 1 -0.82 8.398238756324544 4.16760881872691 -9.067526418429658 0 0 0
63 16 2 0.41 9.346474445100794 3.9184272395281394 -9.200539090442645 0 0 0
64 16 2 0.41 7.955977878156148 3.428938467648757 -9.555077625870272 0 0 0
107 31 1 -0.82 2.6529348308703704 1.2342641756440398 -3.4156830728436876 0 0 0
108 31 2 0.41 2.270486920689037 0.5624574981110226 -2.798152396830763 0 0 0
109 31 2 0.41 3.6160455433922456 1.0301045786732015 -3.317339968421914 0 0 0
116 34 1 -0.82 6.247628719904561 2.1273736343972858 -9.508557759506816 0 0 0
118 34 2 0.41 6.768945360721693 1.2938035955784657 -9.39754108423805 0 0 0
137 41 1 -0.82 1.9569145879636558 7.822137540172547 -1.9520117441304918 0 0 0
138 41 2 0.41 1.0547572302720978 8.052957887867953 -2.286330186412336 0 0 0
139 41 2 0.41 2.0912274961821735 8.553681993983794 -1.2995261070618358 0 0 0
146 44 1 -0.82 2.7552640169784697 0.2669110346736085 -6.966399538768026 0 0 0
147 44 2 0.41 2.4230773676731685 1.027545121272523 -7.504936973051059 0 0 0
152 46 1 -0.82 9.627027371748976 1.9464777070614734 -6.802411656787931 0 0 0
154 46 2 0.41 9.287906178810816 2.342083016714298 -5.961324261048528 0 0 0
215 67 1 -0.82 4.007241248395692 2.371419948041293 -7.239690219641345 0 0 0
216 67 2 0.41 4.94039146720578 2.6601235167828405 -7.397220122604495 0 0 0
217 67 2 0.41 3.551223770452128 3.2494176381127287 -7.249832597873976 0 0 0
218 68 1 -0.82 2.7773160973367803 5.9566391832090195 -9.722329145177424 0 0 0
220 68 2 0.41 3.6500962221489424 5.618705123188029 -9.401408319104082 0 0 0
221 69 1 -0.82 7.8593915444438025 6.0306457758984635 -0.7276224450887121 0 0 0
222 69 2 0.41 7.737895247785195 6.0002203078974565 -1.709074274060549 0 0 0
223 69 2 0.41 7.804694303275939 5.065406067700468 -0.517253081056132 0 0 0
228 71 2 0.41 6.016955951046057 0.6812749634336406 -4.79710876508557 0 0 0
237 74 2 0.41 9.262828140908617 6.6053384779691005 -8.069274241744091 -1 0 0
281 89 1 -0.82 6.194317429201246 7.6796651883627245 -7.790783866537906 0 0 0
282 89 2 0.41 5.760147868030233 7.995112670761144 -8.62200250793021 0 0 0
283 89 2 0.41 5.771628842380846 6.7894266052000445 -7.702781733511053 0 0 0
290 92 1 -0.82 7.2736531346557305 0.392269244609294 -1.730406853120175 0 0 0
291 92 2 0.41 6.883480845224523 1.1279332076766202 -1.1960859104264734 0 0 0
292 92 2 0.41 7.912386081987766 0.9034773635166577 -2.286843042590923 0 0 0
45 10 2 0.41 -5.323126871943775 -0.08195588609479043 9.94000353814346 0 0 -1
46 10 2 0.41 -4.38082862429441 -1.2608271138060414 9.794696365108178 0 0 -1
65 17 1 -0.82 -1.9459920216019555 -3.3042956000640347 1.8136330074386842 0 0 0
66 17 2 0.41 -1.8488416344556304 -4.066929441454333 1.1908279191160234 0 0 0
67 17 2 0.41 -2.3961062603291206 -3.755949669861403 2.5701649136578064 0 0 0
71 19 1 -0.82 -0.7339134894169319 -1.9348261787494343 5.682120634024859 0 0 0
72 19 2 0.41 -1.4859835680613669 -1.586332255756417 5.14186390408835 0 0 0
73 19 2 0.41 -0.7398699511689131 -1.2829558992225307 6.42640848897744 0 0 0
80 22 1 -0.82 -7.162434166136745 -5.944843025361721 1.4304030837373884 0 0 0
81 22 2 0.41 -7.311323837688333 -4.970962332314094 1.5216336335073763 0 0 0
82 22 2 0.41 -6.479229690800193 -5.948378209259632 0.7147537987157973 0 0 0
101 29 1 -0.82 -4.572008194423065 -4.542839704668624 7.403388126728298 0 0 0
102 29 2 0.41 -4.00245029620149 -5.060934845500324 6.78200581492903 0 0 0
103 29 2 0.41 -4.545951990433698 -5.135180595876921 8.19546646542544 0 0 0
114 33 2 0.41 -9.879840257132132 -7.578043381006053 0.5986437200150446 1 0 0
119 35 1 -0.82 -5.241004040966239 -7.135899120643947 5.169932062334497 0 0 0
120 35 2 0.41 -5.119631529839405 -6.5424110749636 4.387643493471133 0 0 0
121 35 2 0.41 -5.301986557650547 -8.011802767566977 4.71385236999687 0 0 0
134 40 1 -0.82 -2.2023121250938567 -2.505196448765991 8.564510151949753 0 0 0
135 40 2 0.41 -1.574180912973592 -1.7598499295396433 8.734346833601554 0 0 0
136 40 2 0.41 -2.2571077151214323 -2.462812467177813 7.57752697417251 0 0 0
150 45 2 0.41 -7.146686077260253 -0.1323816917009265 6.7950952131454185 0 0 0
173 53 1 -0.82 -9.22604088821016 -5.062304671813967 9.117146121958301 0 0 0
174 53 2 0.41 -9.142831366450062 -4.234038912355003 8.582368823456092 0 0 0
175 53 2 0.41 -9.06344969680002 -5.738694608138157 8.413586948674212 0 0 0
181 55 2 0.41 -6.455381949328437 -9.859613061135635 6.353425204127021 0 1 0
201 62 2 0.41 -6.139429683477263 -9.222196354941813 0.6242526422960184 0 0 0
245 77 1 -0.82 -8.08566012618139 -3.6660541597741774 6.133921551295421 0 0 0
246 77 2 0.41 -8.723167788980042 -4.189379137660885 5.587433034316449 0 0 0
247 77 2 0.41 -7.249720033352934 -4.159937383522679 5.943610557659375 0 0 0
263 83 1 -0.82 -8.99688329277957 -0.5876854702913096 7.663359431956444 0 0 0
264 83 2 0.41 -8.570286472774166 -1.4621286841206922 7.843078576028573 0 0 0
265 83 2 0.41 -9.725203795417087 -0.8726250822114398 7.05731206186592 0 0 0
279 88 2 0.41 -7.428678659323371 -9.898601060445824 9.276085223728671 0 1 0
306 97 2 0.41 -0.5495563661469341 -6.500124015277576 3.3584259262718503 0 0 0
32 6 1 -0.82 6.812937416442321 -2.347662782010659 4.896195210874654 0 0 0
33 6 2 0.41 6.446965296352043 -2.9473515389475486 5.592882051511906 0 0 0
34 6 2 0.41 6.563577735809024 -1.4690860018974754 5.276796502145993 0 0 0
104 30 1 -0.82 5.463760442204309 -7.90873711017253 4.458373512279275 0 0 0
105 30 2 0.41 4.861172738378969 -7.181639566579847 4.163158382082684 0 0 0
106 30 2 0.41 4.795928659441712 -8.584678023210142 4.734125835589545 0 0 0
110 32 1 -0.82 3.5408338966657293 -4.860791481667434 6.649395667428832 0 0 0
111 32 2 0.41 2.653504986895837 -4.463216326542342 6.466321491994848 0 0 0
112 32 2 0.41 3.340073030868255 -5.814946369819409 6.481412704075582 0 0 0
113 33 1 -0.82 9.286508812857152 -7.256484211625509 1.0235679241698126 0 0 0
115 33 2 0.41 9.554947276313952 -7.288183328295885 1.975340328233027 0 0 0
140 42 1 -0.82 2.514396985896388 -8.383796896632967 5.710078164552817 0 0 0
141 42 2 0.41 2.449529403577329 -7.551064006223752 5.179717078318359 0 0 0
142 42 2 0.41 2.55645291239484 -9.05021259232692 4.9799712056926095 0 0 0
143 43 1 -0.82 7.574041263916424 -3.281962769489098 2.288321420212314 0 0 0
144 43 2 0.41 8.276583469849726 -3.3551265886306103 1.5954893653476463 0 0 0
145 43 2 0.41 7.31407627780807 -4.233009113927005 2.371169525356468 0 0 0
155 47 1 -0.82 7.152072566300356 -5.899230416559458 7.647943459558684 0 0 0
156 47 2 0.41 7.608006887221491 -6.664080665024107 7.216593550289252 0 0 0
157 47 2 0.41 7.865126562773379 -5.599173044657606 8.264753254777766 0 0 0
195 60 2 0.41 0.24952707119688758 -5.236270268336736 9.34365700174727 0 0 0
209 65 1 -0.82 5.086643461665969 -7.679029910470178 0.9816847708923908 0 0 0
210 65 2 0.41 4.242683724700491 -7.459809731947613 1.4492414278941885 0 0 0
211 65 2 0.41 4.8847657556879645 -8.601083248832053 0.6850405650804741 0 0 0
212 66 1 -0.82 2.990759948725017 -2.505524968734333 3.446846041778196 0 0 0
213 66 2 0.41 2.257607865644372 -1.8487115797069356 3.346751352279424 0 0 0
214 66 2 0.41 3.1762732744109234 -2.7029843208173467 2.4952529764057587 0 0 0
268 84 2 0.41 7.809999415816301 -0.581866886372852 6.967914085969887 0 0 0
284 90 1 -0.82 3.8619383008083417 -9.867642445842318 8.236639387702844 0 0 0
285 90 2 0.41 3.672381043534355 -9.243735448766472 7.492500383879254 0 0 0
289 91 2 0.41 8.466907097351251 -9.245852708720626 9.563933534382906 0 0 -1
305 97 1 -0.82 0.10540595012801351 -5.8982306047457 2.925201459724702 0 0 0
307 97 2 0.41 0.3751994136646757 -6.4611419477752685 2.157557623874678 0 0 0
1 1 1 -0.82 -0.2784528659602862 0.4391345901791925 0.7028537536027145 0 0 0
5 1 2 0.41 -1.2088110830977723 0.7059891463999957 0.8258398213907227 0 0 0
11 1 1 -0.82 -3.069527517372744 1.2396982588416017 1.0718119569667388 0 0 0
12 1 2 0.41 -3.5790067019504925 1.845285726723798 1.6656380545576346 0 0 0
13 1 2 0.41 -2.3149751721145955 1.008031805614244 1.6683991595333405 0 0 0
26 4 1 -0.82 -8.801881396030339 3.7304810748370727 7.79580433264746 0 0 0
27 4 2 0.41 -9.648474741364913 3.759192120752694 8.307067606582374 0 0 0
28 4 2 0.41 -9.148205664365467 3.482124612004898 6.9028803043401075 0 0 0
68 18 1 -0.82 -9.285619435904472 1.0510891480025084 1.9468922814482492 0 0 0
69 18 2 0.41 -8.338886803341198 1.0040526105079435 2.230475846517409 0 0 0
70 18 2 0.41 -9.638997309100557 0.24072118642399853 2.391147385391359 0 0 0
79 21 2 0.41 -0.3497674257969396 5.418975446400966 6.071074831867369 0 0 0
86 24 1 -0.82 -2.029413653520261 1.2509351458200426 7.979648452145927 0 0 0
87 24 2 0.41 -2.03198153541362 2.0075079404655263 7.342054722423069 0 0 0
88 24 2 0.41 -2.028701212158759 0.49134374969306904 7.345649118428469 0 0 0
92 26 1 -0.82 -1.5378046787888926 8.999300678508195 1.700565903896044 0 0 0
93 26 2 0.41 -1.3444324499851894 9.636070388481768 0.9684004380451481 0 0 0
94 26 2 0.41 -2.4781558996343884 9.239000471821575 1.893486463549256 0 0 0
98 28 1 -0.82 -2.534134100709453 6.1235470001397765 2.776473389221187 0 0 0
99 28 2 0.41 -3.2512148196086708 6.757819269883998 2.5266160655072425 0 0 0
100 28 2 0.41 -2.660041821230093 5.436440529088963 2.075783232910715 0 0 0
149 45 1 -0.82 -7.020026244169479 0.0504752980446693 5.831012561201304 0 0 0
151 45 2 0.41 -7.6812859138741745 0.7755656408784504 5.704860289132084 0 0 0
176 54 1 -0.82 -2.73905326402564 5.871799278420133 9.499611530348744 0 0 0
177 54 2 0.41 -2.6206637427951893 6.059810265181387 8.535469143604502 0 0 0
178 54 2 0.41 -3.3499261963434535 5.095074874265904 9.449930423782027 0 0 0
179 55 1 -0.82 -5.995822658456934 9.264366040281093 6.371519269895614 0 0 0
180 55 2 0.41 -6.774828115526908 8.663266311340907 6.475270730223807 0 0 0
200 62 1 -0.82 -6.364231739577426 9.890671327259234 1.0002779580485575 0 -1 0
202 62 2 0.41 -7.307697899487337 9.815391063846159 0.7119392009549176 0 -1 0
230 72 1 -0.82 -5.8586360555130055 3.5564541518703003 3.4773479022607585 0 0 0
231 72 2 0.41 -6.090420041422778 3.276767074806053 2.557029438577651 0 0 0
232 72 2 0.41 -6.663967199348252 4.08423812755546 3.704989233253133 0 0 0
242 76 1 -0.82 -3.361123666875082 8.701840997063623 4.758098944382556 0 0 0
243 76 2 0.41 -3.6630981372066413 7.876963203270348 4.30277181322111 0 0 0
244 76 2 0.41 -2.7666002118961237 9.075573259984823 4.061104820355184 0 0 0
254 80 1 -0.82 -6.36652007310695 6.184123731020665 2.648741143855082 0 0 0
255 80 2 0.41 -7.331412585015132 6.033814577962019 2.489604879077652 0 0 0
256 80 2 0.41 -6.413981400145949 6.842484380233718 3.3857916372410264 0 0 0
278 88 1 -0.82 -7.024220772906752 9.499279356828985 9.948989806868989 0 0 0
280 88 2 0.41 -7.272082890766818 8.621419094051586 9.565766006246797 0 0 0
302 96 1 -0.82 -8.619570958162356 5.874334580212085 4.6126920100133155 0 0 0
303 96 2 0.41 -9.241527802338208 5.326921886891549 4.071911297550885 0 0 0
304 96 2 0.41 -9.11944928276004 6.727780451890893 4.6388942333695775 0 0 0
4 1 2 0.41 0.2694617219466997 0.7291471171515742 1.4562365764748657 0 0 0
8 1 1 -0.82 1.3652908977606715 1.3091721710963373 2.9630022222191683 0 0 0
9 1 2 0.41 0.8923142217735721 1.9945950723407386 2.4287521182441467 0 0 0
10 1 2 0.41 0.7916065280489206 1.2928097699156758 3.7689508640999674 0 0 0
22 2 2 0.41 0.7582531486243862 2.635526743146002 9.421609174978851 0 0 -1
74 20 1 -0.82 2.241221713253656 8.230190664379506 1.7284208975677344 0 0 0
75 20 2 0.41 2.098908524498258 8.711353052029319 0.875681509000276 0 0 0
76 20 2 0.41 3.0154760748115423 8.733751537655573 2.0832326537301196 0 0 0
77 21 1 -0.82 0.0790429975870557 6.280397725760693 6.301309558216219 0 0 0
78 21 2 0.41 0.3110828589346388 6.604772018844768 5.395840854986228 0 0 0
83 23 1 -0.82 2.8117895129179065 7.89314145468039 6.470363219107952 0 0 0
84 23 2 0.41 2.50523403847184 8.790359304094888 6.187593659968057 0 0 0
85 23 2 0.41 2.43117819778055 7.343297546338896 5.741157174806232 0 0 0
117 34 2 0.41 6.107929711229626 2.1140524918457357 9.512033497458201 0 0 -1
125 37 1 -0.82 5.281273257975613 8.09688356535344 3.1233845696856113 0 0 0
126 37 2 0.41 5.734269854539664 8.483880092617026 2.3334715851206584 0 0 0
127 37 2 0.41 5.107724693677238 7.181255019697251 2.791059406620123 0 0 0
164 50 1 -0.82 6.947878105894588 5.138389162551838 3.5716855965095924 0 0 0
165 50 2 0.41 7.910916076315004 4.9943967138834795 3.747067448626674 0 0 0
166 50 2 0.41 6.7045058665194865 4.251133113193199 3.207705641326551 0 0 0
185 57 1 -0.82 5.36446292045795 4.157285955377826 1.1405116806371032 0 0 0
186 57 2 0.41 5.310632545391084 4.9143854603890205 0.5058169650226082 0 0 0
187 57 2 0.41 5.3225525339357125 3.398260966447003 0.5072192225443819 0 0 0
219 68 2 0.41 3.083993086806527 6.615319247466091 9.606087242100322 0 0 -1
239 75 1 -0.82 8.973881357989036 7.172876319994407 2.692729052512423 0 0 0
240 75 2 0.41 9.030140601058486 7.577870056199483 1.7917575085661643 0 0 0
241 75 2 0.41 9.453648879272022 6.323033260368815 2.5298651482082617 0 0 0
251 79 1 -0.82 7.791247277026188 5.586961476183954 8.330451556634188 0 0 0
252 79 2 0.41 8.459751947405843 5.605272775590942 7.601273283650401 0 0 0
253 79 2 0.41 7.4936213323921645 4.645464292525124 8.267709210167109 0 0 0
266 84 1 -0.82 7.9812001501880205 0.1572220603133762 7.603030287332933 0 0 0
267 84 2 0.41 7.195669283479406 0.729398098995576 7.4173138637108975 0 0 0
275 87 1 -0.82 7.99074446032864 8.681709460198352 6.956711835243004 0 0 0
276 87 2 0.41 8.728183287715662 9.157822672498668 6.5001650832754425 0 0 0
277 87 2 0.41 7.986592344793922 7.836668199272257 6.442102489169674 0 0 0
286 90 2 0.41 4.351818203507042 9.425144605215081 7.747965388418226 0 -1 0

Velocities

7 0 0 0
17 0 0 0
18 0 0 0
19 0 0 0
23 0 0 0
24 0 0 0
25 0 0 0
44 0 0 0
59 0 0 0
60 0 0 0
61 0 0 0
89 0 0 0
90 0 0 0
122 0 0 0
123 0 0 0
124 0 0 0
167 0 0 0
169 0 0 0
188 0 0 0
189 0 0 0
190 0 0 0
203 0 0 0
204 0 0 0
206 0 0 0
207 0 0 0
208 0 0 0
269 0 0 0
270 0 0 0
271 0 0 0
272 0 0 0
273 0 0 0
2 0 0 0
3 0 0 0
6 0 0 0
14 0 0 0
15 0 0 0
16 0 0 0
29 0 0 0
30 0 0 0
31 0 0 0
91 0 0 0
95 0 0 0
96 0 0 0
97 0 0 0
131 0 0 0
132 0 0 0
133 0 0 0
148 0 0 0
191 0 0 0
192 0 0 0
193 0 0 0
194 0 0 0
196 0 0 0
197 0 0 0
198 0 0 0
199 0 0 0
205 0 0 0
227 0 0 0
229 0 0 0
233 0 0 0
234 0 0 0
235 0 0 0
260 0 0 0
261 0 0 0
262 0 0 0
274 0 0 0
287 0 0 0
288 0 0 0
293 0 0 0
294 0 0 0
295 0 0 0
296 0 0 0
297 0 0 0
298 0 0 0
41 0 0 0
42 0 0 0
43 0 0 0
53 0 0 0
54 0 0 0
55 0 0 0
56 0 0 0
57 0 0 0
58 0 0 0
128 0 0 0
129 0 0 0
130 0 0 0
153 0 0 0
158 0 0 0
159 0 0 0
160 0 0 0
161 0 0 0
162 0 0 0
163 0 0 0
168 0 0 0
170 0 0 0
171 0 0 0
172 0 0 0
182 0 0 0
183 0 0 0
184 0 0 0
224 0 0 0
225 0 0 0
226 0 0 0
236 0 0 0
238 0 0 0
248 0 0 0
249 0 0 0
250 0 0 0
257 0 0 0
258 0 0 0
259 0 0 0
299 0 0 0
300 0 0 0
301 0 0 0
20 0 0 0
21 0 0 0
35 0 0 0
36 0 0 0
37 0 0 0
38 0 0 0
39 0 0 0
40 0 0 0
47 0 0 0
48 0 0 0
49 0 0 0
50 0 0 0
51 0 0 0
52 0 0 0
62 0 0 0
63 0 0 0
64 0 0 0
107 0 0 0
108 0 0 0
109 0 0 0
116 0 0 0
118 0 0 0
137 0 0 0
138 0 0 0
139 0 0 0
146 0 0 0
147 0 0 0
152 0 0 0
154 0 0 0
215 0 0 0
216 0 0 0
217 0 0 0
218 0 0 0
220 0 0 0
221 0 0 0
222 0 0 0
223 0 0 0
228 0 0 0
237 0 0 0
281 0 0 0
282 0 0 0
283 0 0 0
290 0 0 0
291 0 0 0
292 0 0 0
45 0 0 0
46 0 0 0
65 0 0 0
66 0 0 0
67 0 0 0
71 0 0 0
72 0 0 0
73 0 0 0
80 0 0 0
81 0 0 0
82 0 0 0
101 0 0 0
102 0 0 0
103 0 0 0
114 0 0 0
119 0 0 0
120 0 0 0
121 0 0 0
134 0 0 0
135 0 0 0
136 0 0 0
150 0 0 0
173 0 0 0
174 0 0 0
175 0 0 0
181 0 0 0
201 0 0 0
245 0 0 0
246 0 0 0
247 0 0 0
263 0 0 0
264 0 0 0
265 0 0 0
279 0 0 0
306 0 0 0
32 0 0 0
33 0 0 0
34 0 0 0
104 0 0 0
105 0 0 0
106 0 0 0
110 0 0 0
111 0 0 0
112 0 0 0
113 0 0 0
115 0 0 0
140 0 0 0
141 0 0 0
142 0 0 0
143 0 0 0
144 0 0 0
145 0 0 0
155 0 0 0
156 0 0 0
157 0 0 0
195 0 0 0
209 0 0 0
210 0 0 0
211 0 0 0
212 0 0 0
213 0 0 0
214 0 0 0
268 0 0 0
284 0 0 0
285 0 0 0
289 0 0 0
305 0 0 0
307 0 0 0
1 0 0 0
5 0 0 0
11 0 0 0
12 0 0 0
13 0 0 0
26 0 0 0
27 0 0 0
28 0 0 0
68 0 0 0
69 0 0 0
70 0 0 0
79 0 0 0
86 0 0 0
87 0 0 0
88 0 0 0
92 0 0 0
93 0 0 0
94 0 0 0
98 0 0 0
99 0 0 0
100 0 0 0
149 0 0 0
151 0 0 0
176 0 0 0
177 0 0 0
178 0 0 0
179 0 0 0
180 0 0 0
200 0 0 0
202 0 0 0
230 0 0 0
231 0 0 0
232 0 0 0
242 0 0 0
243 0 0 0
244 0 0 0
254 0 0 0
255 0 0 0
256 0 0 0
278 0 0 0
280 0 0 0
302 0 0 0
303 0 0 0
304 0 0 0
4 0 0 0
8 0 0 0
9 0 0 0
10 0 0 0
22 0 0 0
74 0 0 0
75 0 0 0
76 0 0 0
77 0 0 0
78 0 0 0
83 0 0 0
84 0 0 0
85 0 0 0
117 0 0 0
125 0 0 0
126 0 0 0
127 0 0 0
164 0 0 0
165 0 0 0
166 0 0 0
185 0 0 0
186 0 0 0
187 0 0 0
219 0 0 0
239 0 0 0
240 0 0 0
241 0 0 0
251 0 0 0
252 0 0 0
253 0 0 0
266 0 0 0
267 0 0 0
275 0 0 0
276 0 0 0
277 0 0 0
286 0 0 0

Bonds

1 1 17 18
2 1 17 19
3 1 23 24
4 1 23 25
5 1 44 45
6 1 44 46
7 1 59 60
8 1 59 61
9 1 89 90
10 1 89 91
11 1 122 123
12 1 122 124
13 1 167 168
14 1 167 169
15 1 188 189
16 1 188 190
17 1 203 204
18 1 203 205
19 1 206 207
20 1 206 208
21 1 269 270
22 1 269 271
23 1 272 273
24 1 272 274
25 1 3 6
26 1 3 7
27 1 14 15
28 1 14 16
29 1 29 30
30 1 29 31
31 1 95 96
32 1 95 97
33 1 131 132
34 1 131 133
35 1 191 192
36 1 191 193
37 1 194 195
38 1 194 196
39 1 197 198
40 1 197 199
41 1 227 228
42 1 227 229
43 1 233 234
44 1 233 235
45 1 260 261
46 1 260 262
47 1 287 288
48 1 287 289
49 1 293 294
50 1 293 295
51 1 296 297
52 1 296 298
53 1 41 42
54 1 41 43
55 1 53 54
56 1 53 55
57 1 56 57
58 1 56 58
59 1 128 129
60 1 128 130
61 1 158 159
62 1 158 160
63 1 161 162
64 1 161 163
65 1 170 171
66 1 170 172
67 1 182 183
68 1 182 184
69 1 224 225
70 1 224 226
71 1 236 237
72 1 236 238
73 1 248 249
74 1 248 250
75 1 257 258
76 1 257 259
77 1 299 300
78 1 299 301
79 1 20 21
80 1 20 22
81 1 35 36
82 1 35 37
83 1 38 39
84 1 38 40
85 1 47 48
86 1 47 49
87 1 50 51
88 1 50 52
89 1 62 63
90 1 62 64
91 1 107 108
92 1 107 109
93 1 116 117
94 1 116 118
95 1 137 138
96 1 137 139
97 1 146 147
98 1 146 148
99 1 152 153
100 1 152 154
101 1 215 216
102 1 215 217
103 1 218 219
104 1 218 220
105 1 221 222
106 1 221 223
107 1 281 282
108 1 281 283
109 1 290 291
110 1 290 292
111 1 65 66
112 1 65 67
113 1 71 72
114 1 71 73
115 1 80 81
116 1 80 82
117 1 101 102
118 1 101 103
119 1 119 120
120 1 119 121
121 1 134 135
122 1 134 136
123 1 173 174
124 1 173 175
125 1 245 246
126 1 245 247
127 1 263 264
128 1 263 265
129 1 32 33
130 1 32 34
131 1 104 105
132 1 104 106
133 1 110 111
134 1 110 112
135 1 113 114
136 1 113 115
137 1 140 141
138 1 140 142
139 1 143 144
140 1 143 145
141 1 155 156
142 1 155 157
143 1 209 210
144 1 209 211
145 1 212 213
146 1 212 214
147 1 284 285
148 1 284 286
149 1 305 306
150 1 305 307
151 1 1 4
152 1 1 5
153 1 11 12
154 1 11 13
155 1 26 27
156 1 26 28
157 1 68 69
158 1 68 70
159 1 86 87
160 1 86 88
161 1 92 93
162 1 92 94
163 1 98 99
164 1 98 100
165 1 149 150
166 1 149 151
167 1 176 177
168 1 176 178
169 1 179 180
170 1 179 181
171 1 200 201
172 1 200 202
173 1 230 231
174 1 230 232
175 1 242 243
176 1 242 244
177 1 254 255
178 1 254 256
179 1 278 279
180 1 278 280
181 1 302 303
182 1 302 304
183 1 8 9
184 1 8 10
185 1 74 75
186 1 74 76
187 1 77 78
188 1 77 79
189 1 83 84
190 1 83 85
191 1 125 126
192 1 125 127
193 1 164 165
194 1 164 166
195 1 185 186
196 1 185 187
197 1 239 240
198 1 239 241
199 1 251 252
200 1 251 253
201 1 266 267
202 1 266 268
203 1 275 276
204 1 275 277

Angles

1 1 18 17 19
2 1 24 23 25
3 1 45 44 46
4 1 60 59 61
5 1 90 89 91
6 1 123 122 124
7 1 168 167 169
8 1 189 188 190
9 1 204 203 205
10 1 207 206 208
11 1 270 269 271
12 1 273 272 274
13 1 6 3 7
14 1 15 14 16
15 1 30 29 31
16 1 96 95 97
17 1 132 131 133
18 1 192 191 193
19 1 195 194 196
20 1 198 197 199
21 1 228 227 229
22 1 234 233 235
23 1 261 260 262
24 1 288 287 289
25 1 294 293 295
26 1 297 296 298
27 1 42 41 43
28 1 54 53 55
29 1 57 56 58
30 1 129 128 130
31 1 159 158 160
32 1 162 161 163
33 1 171 170 172
34 1 183 182 184
35 1 225 224 226
36 1 237 236 238
37 1 249 248 250
38 1 258 257 259